LAMMPS data file via write_data, version 15 May 2015, timestep = 180000

8268 atoms
2 atom types

0.0000000000000000e+00 5.0000000000000000e+01 xlo xhi
0.0000000000000000e+00 5.0000000000000000e+01 ylo yhi
0.0000000000000000e+00 5.0000000000000000e+01 zlo zhi

Masses

1 28.0855
2 15.9994

Atoms # full

300 0 2 -6.8489734273049774e-01 2.8429297918702749e+00 4.4598700600454766e+00 1.8397703445414146e+00 0 1 0
4330 0 1 1.2267355242756457e+00 2.1196514623902463e+00 3.4413611313100643e+00 2.7168546959166759e+00 1 1 1
5429 0 2 -6.2533108284789685e-01 2.6594902255651873e+00 4.1223624166515194e+00 4.7296236250716062e+00 1 1 1
7550 0 2 -7.0794772374009896e-01 2.2335697807871600e+00 2.0785237778421681e+00 1.8019668795633443e+00 1 1 1
3219 0 2 -7.4476421942514559e-01 7.2888610619379468e-01 4.0606785672040386e+00 2.6079313234197632e+00 1 1 1
1893 0 2 -7.8306072486809430e-01 4.3954500930966782e+00 1.0660679187258124e+00 5.6075996407583215e+00 1 1 0
2501 0 2 -7.7013315735166987e-01 5.0058370326219146e+00 4.4476377855837477e+00 4.0534179376331645e+00 1 1 1
7219 0 1 1.3588704693412321e+00 4.1092151182191241e+00 5.0000689115228445e+00 5.1766421924015154e+00 1 0 1
7153 0 1 1.3123961631975440e+00 2.9783273561816075e+00 4.8795283858553384e+00 3.0116632167390650e-01 1 1 1
2998 0 1 1.1456085995404599e+00 4.7653839432410566e-01 1.6024492349373705e+00 5.9419921077274394e+00 0 1 1
4606 0 1 1.4816256722725665e+00 2.4542099133534427e+00 1.8597800493652017e+00 2.1747474521076493e-01 1 1 1
3982 0 1 1.5804168345795051e+00 5.3785769238830303e+00 2.4516373302962097e-01 4.5479704104080918e+00 1 1 1
7361 0 2 -7.7018556470947919e-01 1.9716549311395903e+00 1.2117704566422640e+00 6.1929841107305643e+00 1 2 1
1600 0 1 1.5465938308842295e+00 6.1614399442986789e+00 4.5187143137099550e+00 2.9571294512645503e+00 1 1 0
6833 0 2 -7.8586617154590832e-01 6.2162520178575393e+00 1.2154025900698384e+00 7.1085087719653639e-01 1 1 1
3198 0 2 -7.3235609955838288e-01 6.2229284030526948e+00 5.3794393215719385e+00 1.6199865106910567e+00 1 1 1
5011 0 1 1.4183200881052869e+00 6.0240777636781582e+00 5.4058557814554016e+00 3.3503748386891630e-02 1 1 1
4695 0 2 -6.9825335159665913e-01 4.5431417168543389e+00 4.8453745229519258e+00 2.4587303837073193e-02 1 1 1
7235 0 2 -7.7747846633516671e-01 6.2938955577399121e+00 6.9854975617000725e-01 3.4024217072567788e+00 1 1 1
7650 0 2 -8.3425732699976929e-01 6.2516102427584697e+00 3.0189188712072661e+00 2.5247916959793533e+00 0 1 1
5761 0 1 1.6130033025274408e+00 6.7695925130957804e+00 1.6620573436043031e+00 2.1034943810195674e+00 1 1 1
2516 0 2 -7.9075073157429321e-01 1.0415503270714868e+01 1.0987579215549710e+00 2.8170309841764980e+00 0 1 0
5964 0 2 -7.4533963329506425e-01 7.6355920454642563e+00 4.7542273426831905e+00 3.4862691392824563e+00 1 1 1
1411 0 1 1.5968436668315087e+00 9.0185695878092460e+00 4.2507846165444487e+00 4.0895080763073164e+00 1 1 1
389 0 2 -8.2692464878054250e-01 9.6789256328161049e+00 3.5512291614807516e+00 2.8978232437155316e+00 0 0 1
748 0 1 1.6232037451679269e+00 9.8037412283240410e+00 2.2962751228856311e+00 1.9617229253004018e+00 0 1 1
4418 0 2 -7.9869847163849972e-01 8.3416850772834596e+00 1.8066435008743997e+00 1.9237827740180324e+00 0 1 2
6839 0 2 -8.0036056207469253e-01 8.7413239934984599e+00 3.2920303076256237e+00 5.2773719025335630e+00 0 1 1
3636 0 2 -8.2070633271916937e-01 1.0286026069892358e+01 1.4387409043996846e+00 5.2363655354625083e+00 1 1 1
2625 0 2 -7.4339918509519676e-01 9.6710207478405206e+00 5.6550283384382576e+00 4.5980363425504658e+00 1 1 0
2109 0 2 -7.8058655434314139e-01 1.0605583428659997e+01 2.7905172244022434e+00 7.0601111619252954e-01 1 1 1
5782 0 1 1.5902890480166825e+00 1.0767951082065013e+01 3.6809441808892746e-01 4.1591923084248235e+00 1 1 1
2272 0 1 1.5463054685799720e+00 1.1972449308730024e+01 3.4414276209187102e+00 1.0377885342270281e-01 1 1 1
8267 0 2 -7.4952372521956256e-01 1.2380297466917693e+01 3.9595972048578532e-01 4.1405926939513948e+00 1 1 1
6502 0 1 1.6057994713565160e+00 9.1934046321764686e+00 2.1071535946579578e+00 6.1927366646766417e+00 1 1 1
344 0 2 -8.4232656810771955e-01 1.2865831745042183e+01 3.8751309682852311e+00 1.3554302593796572e+00 0 1 1
5020 0 1 1.5034494243899530e+00 1.3594024064143467e+01 1.3768002601737594e+00 4.4051974233058866e+00 1 1 1
5900 0 2 -8.3278907807395386e-01 1.3545167693175241e+01 2.5429721906481815e+00 3.3685329892107854e+00 0 1 1
8015 0 2 -7.6193281343093433e-01 1.3247270993183495e+01 4.9022521336084619e+00 3.6695118371300337e+00 1 1 1
5047 0 1 1.6709273412974692e+00 1.3710922452984873e+01 3.8184155024819963e+00 2.5990811834480598e+00 0 1 1
576 0 2 -7.3210181548537023e-01 1.7886106586249781e+01 2.8210698260996794e+00 1.7707409616503105e+00 1 1 1
2254 0 1 1.5488994062859058e+00 1.6357092766556807e+01 2.7066196937439972e+00 1.3828152892880099e+00 1 2 2
2627 0 2 -7.5604705799247840e-01 1.5252227520229662e+01 3.5412965156966925e+00 2.1940076180212342e+00 1 1 1
4409 0 2 -8.0350685858133397e-01 1.5093340440977620e+01 7.7837925075941550e-01 4.4411882702656822e+00 1 1 1
1160 0 2 -8.1667551455517151e-01 1.6049047805169710e+01 1.1739109325371369e+00 1.1391803499010016e+00 0 1 1
5274 0 2 -7.6793430637749505e-01 1.7806368833885763e+01 4.2184708124829451e-01 4.2119405276826027e+00 1 1 0
3402 0 2 -7.8258551311400781e-01 1.3062608835790625e+01 2.0565386057973858e+00 5.8521034905709985e+00 1 1 0
6337 0 1 1.5891368110105328e+00 1.6474541757334411e+01 4.5332639829506843e-01 5.0365018964120125e+00 1 1 1
645 0 2 -6.9719728699416006e-01 2.0123257782632244e+01 4.8827087301889636e+00 4.5912277609802796e+00 1 1 1
2982 0 2 -6.5807462628765445e-01 1.9348319860189541e+01 7.9793354926588833e-01 2.3271882605564307e+00 0 1 1
2257 0 1 1.3873660825266585e+00 1.9389192214902682e+01 2.3741502821158038e+00 1.7721043388578150e+00 1 1 1
3305 0 2 -6.8656770969630110e-01 1.9808191450790886e+01 3.0048059816108932e+00 3.2321632992280751e+00 1 1 0
789 0 2 -7.0061306252468269e-01 2.2096518477550223e+01 2.9559151707506475e+00 3.5790850929199274e+00 0 1 1
3493 0 1 1.4071964273546473e+00 2.0689945056793992e+01 3.4161597569873856e+00 4.4266875129908136e+00 1 1 0
2902 0 1 1.4882583318463436e+00 2.2778767476579734e+01 1.7000049285642103e+00 2.8518183132050403e+00 1 1 1
7875 0 2 -7.5875708665119712e-01 2.4294199960834536e+01 1.8925917190280299e+00 2.7675880451822477e+00 1 1 1
236 0 2 -7.4054954396941808e-01 2.2538777573216564e+01 6.3996531846011440e-01 1.6866302297552449e+00 0 1 1
5273 0 2 -7.4014676530951828e-01 2.0253014376244447e+01 2.8782805367527948e+00 4.8386254479527474e-01 1 2 1
2888 0 2 -7.5353092355161533e-01 2.2699642552827477e+01 6.1718594120956283e-01 4.0169960634078681e+00 0 1 1
5141 0 2 -6.9982805197548614e-01 2.0808361499525837e+01 3.1282507097968586e+00 6.0345731058620018e+00 0 0 1
5514 0 2 -7.8813134471217627e-01 2.4929669751883605e+01 2.2728184119381178e+00 5.9237966207834765e+00 0 1 0
7581 0 2 -6.6328425908012345e-01 2.6354482896949833e+00 6.5012872483323720e+00 7.0701520560621312e-01 0 1 1
7154 0 2 -7.7577127820228398e-01 4.0875185592482470e+00 6.5777031040321443e+00 5.0409241553083461e+00 2 1 1
1200 0 2 -7.7753474556503754e-01 5.9863382367201201e-01 7.4141147404994516e+00 1.7341950633085204e+00 1 1 1
5102 0 2 -7.6639176193659342e-01 2.3987991135607301e+00 9.1161380875279416e+00 1.2542061735790071e+00 1 1 2
5241 0 2 -7.9291481079990778e-01 2.5522733328960827e+00 7.5937311552169211e+00 3.3248843470771154e+00 1 1 1
396 0 2 -8.2996190602470621e-01 4.2641527331993307e+00 9.0262974441404555e+00 4.7798870118882339e+00 0 1 1
5389 0 1 1.6338806477925416e+00 3.2691337476735494e+00 7.8769440502458412e+00 4.6889409037736440e+00 1 1 1
7170 0 2 -7.6702321673881957e-01 4.7764157417767343e+00 1.1385432939251981e+01 3.7573323319921075e+00 1 1 1
5278 0 1 1.4958027735477624e+00 2.1587268711930840e+00 7.6248107294413314e+00 1.7514601903435536e+00 1 1 1
7178 0 2 -7.7890561654110191e-01 3.1690621325810140e+00 1.1526105634544805e+01 1.8632439265106557e+00 1 1 1
1315 0 1 1.5661806746119842e+00 1.9294926550400890e+00 1.0629678672964838e+01 1.4244472217587478e+00 1 1 1
2485 0 1 1.5384418106583837e+00 5.3716678606421926e+00 1.0069946042289160e+01 4.4588996654918542e+00 1 1 1
2027 0 2 -7.8331777210169318e-01 2.1894263298228096e+00 7.9923773523042208e+00 5.7939163037031385e+00 1 1 2
3275 0 2 -7.7734913896649749e-01 9.9356053685180190e-01 1.0844811565468847e+01 2.6306423366041369e+00 1 1 0
5944 0 1 1.6040889314897642e+00 4.0140649342513726e+00 1.2409476480442374e+01 2.8492370755805378e+00 0 1 1
2733 0 2 -7.9457150049461800e-01 1.1390426028629621e+00 1.1142090435611125e+01 1.6004884222226318e-01 1 1 1
7412 0 2 -5.4824614645114911e-01 6.1867458548318561e+00 1.0746043677492215e+01 5.5901596881604414e+00 1 0 1
4617 0 2 -7.5057100233158103e-01 6.5608150837511481e+00 9.2232896376740143e+00 3.8243305902890876e+00 1 1 1
5286 0 2 -7.9478468055314622e-01 1.1756166331793162e+01 6.7503626838502671e+00 4.0405878420002423e+00 1 1 1
6532 0 1 1.4340206767486579e+00 8.2986132565233515e+00 1.1036699802349387e+01 1.0670101798900333e+00 1 2 0
5779 0 1 1.5019244047712101e+00 1.0258802195702037e+01 7.0958094186174323e+00 4.3300801023147510e+00 1 2 1
5310 0 2 -7.5070313131881028e-01 9.1479403280641041e+00 7.9226414766723314e+00 3.5294342238473728e+00 1 1 1
7939 0 1 1.4776133227311616e+00 8.0888211316548215e+00 9.1645764096046509e+00 3.4688231421779068e+00 1 1 0
2526 0 2 -7.4989232147409057e-01 1.0509703031001907e+01 8.1880330124239507e+00 5.4638924355923306e+00 2 1 0
3912 0 2 -7.2835570416614281e-01 7.9858437691979356e+00 9.8279845345577090e+00 2.0970572483605263e+00 1 1 1
3384 0 2 -6.8816854609797951e-01 8.5474128609989304e+00 1.0398727114516424e+01 4.4334636474902949e+00 0 1 1
4129 0 1 1.4613787966053797e+00 1.1162598970877585e+01 9.6018777578819687e+00 5.7715764397681326e+00 1 1 1
2807 0 2 -7.3052611315413951e-01 1.1738005762087779e+01 9.5002180807336387e+00 1.6326415652715398e+00 1 1 1
1377 0 2 -7.7945532521443739e-01 1.1927838583326920e+01 1.0012605715332816e+01 4.3979206515366647e+00 1 0 1
2602 0 1 1.2888507274600538e+00 8.1588580841751153e+00 1.1062784467705335e+01 5.8818387640791734e+00 1 1 1
1937 0 2 -5.7654847219409999e-01 1.0090078642136925e+01 1.0712441833972866e+01 6.1549879301479509e+00 1 1 1
849 0 2 -7.2857718604165278e-01 9.8018010794729253e+00 1.0889357861314885e+01 6.0863419469620539e-01 1 1 1
657 0 2 -7.1715708059394290e-01 7.5521012224273294e+00 1.2414603064455880e+01 1.4334654533006428e+00 0 0 1
367 0 1 1.4717590289818874e+00 1.1119300357765834e+01 1.0062489070314264e+01 2.6589449865182502e-01 1 1 0
620 0 2 -7.1147515030520003e-01 1.1987809500857438e+01 1.1410017897536783e+01 2.3780752203688849e-01 2 1 1
1234 0 1 1.4918616814246035e+00 1.3211830280287764e+01 6.2715680257553874e+00 4.4062296864560020e+00 0 1 1
3643 0 1 1.4942304144532526e+00 1.2586187939032065e+01 9.9293580755316508e+00 3.0054685830287822e+00 1 0 1
7854 0 2 -6.8786344320926751e-01 1.2753774964508979e+01 1.1444421865271627e+01 2.6233415988643363e+00 1 1 0
6114 0 2 -7.5107289886717543e-01 1.3971074381601380e+01 6.4617491561334957e+00 5.8889902139561174e+00 1 1 1
5963 0 2 -7.4273053686396717e-01 1.4303358673372324e+01 7.0028283273709420e+00 3.5268173547072288e+00 1 1 1
5683 0 1 1.5438468268308658e+00 1.5152746575403382e+01 8.2326625419596819e+00 3.0778395451479481e+00 0 1 1
6767 0 2 -8.2436591263024195e-01 1.4047656592084778e+01 9.3352172024081170e+00 3.0619833106301133e+00 0 1 1
6879 0 2 -7.8311216976892140e-01 1.6578914028488459e+01 8.1121971064581402e+00 3.7588995231773934e+00 1 1 1
3013 0 1 1.6497931590443040e+00 1.8122619159723079e+01 8.5540123871436844e+00 3.6597809617227801e+00 0 0 1
4375 0 1 1.7679896329284228e+00 1.7991354489365023e+01 1.0276275145349416e+01 1.1362901382751425e+00 1 1 1
5343 0 2 -8.1768201971382248e-01 1.8280001734291648e+01 1.1817749502305878e+01 1.3198598641733970e+00 1 0 1
3278 0 2 -7.2044575204316819e-01 1.5414619587050662e+01 7.7657077170968245e+00 1.5951917000688569e+00 1 0 1
4422 0 2 -8.9335120663206669e-01 1.8132913785995445e+01 9.5046140416328324e+00 2.4327235079836269e+00 0 1 1
6503 0 2 -8.1380405637066711e-01 1.4382643321292926e+01 1.1744908577468644e+01 7.3399332818599161e-01 1 1 1
4738 0 1 1.4940997293891520e+00 1.2958064785486615e+01 1.2284004248004486e+01 1.2017618152916578e+00 0 1 1
5229 0 2 -8.6107410703158760e-01 1.8548034935646420e+01 1.2003282108867563e+01 5.4168730537160750e+00 1 1 0
2477 0 2 -7.3714410388795115e-01 1.5154880019922590e+01 1.1310138057890601e+01 5.9298803101873210e+00 1 1 0
3698 0 2 -8.6773322143082832e-01 1.6619285359861156e+01 1.0374850133844914e+01 4.9380728890895409e-01 1 1 1
8027 0 2 -8.2454124081334323e-01 1.8534114956120369e+01 9.5696390530881015e+00 4.7319979684283835e+00 0 1 0
2533 0 1 1.4081713884832427e+00 1.4929789116355327e+01 7.7940098618580826e+00 7.7622767826639461e-02 0 0 1
4318 0 1 1.6648797964918856e+00 1.8843151997413937e+01 1.0602290021797353e+01 5.8768500729425641e+00 0 1 0
4013 0 2 -7.5653585416209956e-01 2.4478793514071235e+01 6.5760880891755171e+00 3.9721984390181899e+00 1 1 1
538 0 1 1.5411431051450752e+00 2.0214607642520349e+01 6.4957116456843558e+00 4.7085051281422245e+00 0 1 1
179 0 2 -8.0015057780645293e-01 2.1733989393472775e+01 6.6164018488355030e+00 4.3499049738871998e+00 0 1 1
4223 0 2 -7.9016196695221064e-01 1.9155349498743206e+01 7.3513965648541477e+00 3.9291443618191293e+00 1 1 1
3652 0 1 1.5658044929155326e+00 2.2396508310412507e+01 9.4716303191598765e+00 2.3997551458358108e+00 1 1 1
6392 0 2 -8.3140464688571114e-01 2.2934774389628110e+01 8.4126242798939366e+00 3.4422140743005416e+00 1 0 1
277 0 1 1.6249923308450616e+00 2.3170274578240139e+01 7.2457343207436766e+00 4.4176647515137430e+00 1 0 1
6510 0 2 -7.7212026698275960e-01 2.2378257004630314e+01 1.0902605372797465e+01 3.1265871045868607e+00 0 0 0
7904 0 2 -7.9983153705435717e-01 2.3402960517030067e+01 9.6286969203151962e+00 1.1894359553669858e+00 1 0 1
3923 0 2 -7.7723977960059176e-01 2.3253336136496561e+01 7.7298292365092740e+00 5.9479877246674446e+00 0 1 1
6888 0 2 -7.6965763648384866e-01 2.1177371564890560e+01 9.2416984655236227e+00 1.3931245388779521e+00 1 0 1
895 0 1 1.5309863609553236e+00 2.3199442682235809e+01 1.2079248880321117e+01 3.8051066461242899e+00 1 1 1
4932 0 2 -7.6553750739523463e-01 2.4124113570042379e+01 1.2233538763613447e+01 5.0577589573089083e+00 0 1 1
1500 0 2 -7.7655760495109316e-01 2.4831078807448097e+01 1.1266748984662520e+01 3.4393724640237022e-01 0 1 1
5289 0 2 -7.4450461539602875e-01 2.4076809316657553e+01 1.2417376582715654e+01 2.5298010190178433e+00 0 1 1
754 0 1 1.6126272650063018e+00 2.4410298059953487e+01 9.7916492454949839e+00 8.1814935483514262e-02 0 1 1
7863 0 2 -8.3673515181201641e-01 1.9075723608282580e+01 9.6609627931867266e+00 2.2265514061729874e-01 0 1 2
758 0 2 -6.2795806435339352e-01 2.1941142261304947e-02 1.4526637486746713e+01 4.1101308902304607e+00 1 1 1
7893 0 2 -7.1283205648439196e-01 1.7474490669458045e-01 1.7873087768396424e+01 2.5888103290159745e+00 1 1 1
3185 0 2 -7.9661791808326310e-01 5.1070900946216504e+00 1.3112573408119355e+01 2.0223613782508285e+00 0 0 0
1964 0 2 -7.7950809833554446e-01 3.1961337445381450e+00 1.3460743461884407e+01 3.7556456938526268e+00 1 0 1
4402 0 1 1.2872049916570181e+00 2.1290380082931462e+00 1.4526766702320977e+01 4.0689400411473606e+00 1 1 1
6051 0 2 -6.9778990276010111e-01 2.0626273132630382e+00 1.5560765141327529e+01 2.9382549165951559e+00 1 1 1
3571 0 1 1.3387132445419674e+00 3.3322047491969369e+00 1.7031856911400958e+01 2.8193431595795109e+00 1 1 1
4613 0 2 -8.0529609974669869e-01 3.8619189732462389e+00 1.6950284896483435e+01 1.4148959627250732e+00 0 0 1
5321 0 2 -6.7606604886191457e-01 3.8472745399042516e+00 1.7059082634348517e+01 4.3492463857674606e+00 1 1 1
3651 0 2 -6.9813654597042796e-01 2.3749732167345816e+00 1.5481075319864498e+01 5.2857440984939528e+00 1 0 1
6670 0 1 1.4071408608218028e+00 3.2300056801485844e+00 1.6731532987749244e+01 5.8627618430408148e+00 1 0 1
4172 0 2 -7.3067679928042417e-01 2.4914775803717282e+00 1.8339302810264495e+01 2.9197011723086779e+00 1 0 2
1336 0 1 1.4799612505455582e+00 6.4186739639597485e+00 1.3682973553234312e+01 1.4464316678987794e+00 1 0 1
3395 0 2 -7.8140466281890131e-01 6.9042846311079220e+00 1.4778009226134717e+01 2.4804281972667783e+00 1 0 0
2970 0 2 -8.0200177969346076e-01 7.1552763092386931e+00 1.7308159327014035e+01 4.0379070278356810e+00 0 1 1
2153 0 2 -7.6549751794092669e-01 1.0114950008981010e+01 1.7829930224586104e+01 8.1839937739934909e-01 0 0 1
1107 0 2 -7.8732387850900420e-01 8.0757205874036639e+00 1.5119292944489347e+01 4.6191279790975175e+00 1 1 1
4339 0 1 1.5891566015290521e+00 9.6874270223412342e+00 1.6336741601297867e+01 1.1306269372519471e+00 1 1 1
6580 0 1 1.5628522482343836e+00 7.5967098878116071e+00 1.5885961624041698e+01 3.3548493263735604e+00 1 1 1
1938 0 2 -7.9198536564575750e-01 1.0849111550594690e+01 1.5485721647870793e+01 1.6584614020089090e+00 1 1 1
525 0 2 -8.2357220725164426e-01 8.7007296971476915e+00 1.6304061229261560e+01 2.2869831829826830e+00 0 1 1
7828 0 1 1.6119444823736298e+00 8.0122069554683613e+00 1.4431233214209159e+01 6.0601430392831901e+00 1 1 1
5194 0 1 1.6366256982733587e+00 1.2399758755516006e+01 1.5186161897851543e+01 2.0302146633711726e+00 1 1 2
5347 0 1 1.5835582641685739e+00 7.5301729734696261e+00 1.8709133289199578e+01 4.5499556376428307e+00 1 1 1
7772 0 2 -8.4975252315354044e-01 8.7216458842269127e+00 1.8728194413802740e+01 5.6154991956840163e+00 1 0 1
5865 0 2 -8.2334949209477049e-01 1.1846855662711882e+01 1.5437153818794123e+01 5.8869948266770242e+00 0 1 1
6176 0 2 -6.3983812995035683e-01 7.9024178720877440e+00 1.2894618924793544e+01 5.8119813862259182e+00 1 1 1
68 0 2 -8.3546347170350665e-01 1.2770856025437693e+01 1.3796698185747967e+01 1.5054470833888460e+00 0 2 1
1175 0 2 -8.2745581998369866e-01 1.2750406315294242e+01 1.5317409756715435e+01 3.5653522782834703e+00 1 1 1
1132 0 1 1.4761899449550977e+00 1.4954320162435952e+01 1.2910338569145438e+01 6.0529684496440925e+00 0 0 1
5456 0 2 -7.9763965882035381e-01 1.3056031514749002e+01 1.6363315221957830e+01 1.1867037809806480e+00 1 0 1
4414 0 1 1.5548126487114597e+00 1.8121282279158500e+01 1.3258009697790056e+01 1.9281720806837430e+00 0 0 1
2341 0 1 1.6355451230614555e+00 1.3148199707856625e+01 1.5355990723990114e+01 5.0545628227603965e+00 1 1 1
5081 0 2 -7.7948421347001806e-01 1.7520798922089121e+01 1.3059156153588473e+01 3.3257108962900750e+00 0 1 1
4364 0 2 -7.8876743833619467e-01 1.4904538807335072e+01 1.7874056085658069e+01 1.0425175337567629e+00 1 0 1
6617 0 2 -7.7487415503436186e-01 1.7470016246127841e+01 1.4526384595588068e+01 1.1486163125476889e+00 1 1 1
7989 0 2 -7.3655162185882039e-01 1.3849455231934785e+01 1.3990344686124624e+01 5.4693048518136660e+00 1 0 1
5738 0 2 -7.7616093192518687e-01 1.5414728170325894e+01 1.7968661011480393e+01 3.7479849249461172e+00 1 1 0
6601 0 1 1.5770317972217018e+00 1.4404670428474734e+01 1.8245249703465419e+01 4.9415741909287609e+00 1 1 1
4840 0 1 1.6045785267871522e+00 1.7720086941598819e+01 1.3274045895277165e+01 4.9339311017766239e+00 1 1 1
273 0 2 -7.3446936636217452e-01 1.6933058542657850e+01 1.7041611449235059e+01 1.9579983003345811e+00 1 1 0
621 0 2 -7.4955915145829599e-01 1.4007797430730756e+01 1.6737715712424333e+01 5.3376052806299485e+00 1 1 1
3583 0 1 1.5582088998166292e+00 1.5826813714159790e+01 1.8138982741090235e+01 2.2700706008816738e+00 1 1 1
1006 0 1 1.4233520820313537e+00 1.7735625636976764e+01 1.6048352856095345e+01 1.0070424347221174e+00 0 1 1
2903 0 2 -8.0763212100392967e-01 1.6363035540410056e+01 1.3347371726692758e+01 5.6631640860789343e+00 1 1 1
4874 0 2 -8.0946403222253016e-01 1.8384380699397575e+01 1.4695761636658393e+01 5.1125530801615389e+00 1 1 1
487 0 1 1.4993461564893131e+00 1.3835533526662720e+01 1.7166391080803834e+01 1.0419891897237604e-01 0 1 1
6299 0 2 -6.5633663043694734e-01 1.9394316097702220e+01 1.6164885723633503e+01 1.3471885306425444e+00 1 1 1
1940 0 2 -8.3641244551609140e-01 1.9194119545811830e+01 1.7192188285523748e+01 5.2050221647062402e+00 0 1 0
2952 0 2 -7.5311920275570077e-01 1.9544581409983461e+01 1.3935800292536587e+01 2.0953543536598485e+00 1 1 0
5460 0 2 -8.5893741490036024e-01 2.3166194242205602e+01 1.5808709721221653e+01 4.5288785690174018e+00 0 1 1
1435 0 1 1.4922468753940292e+00 2.1970085179216113e+01 1.4846506286831909e+01 4.0007167049374850e+00 0 1 1
127 0 1 1.6762042120090774e+00 1.9394438354242610e+01 1.5742458183450850e+01 5.6333044714157472e+00 0 1 1
1349 0 2 -7.1095048861948118e-01 2.1656040231832499e+01 1.5285678073690622e+01 2.4877466927883165e+00 0 1 1
851 0 2 -7.7843531414304235e-01 2.0733734090091616e+01 1.5252106835997241e+01 4.9047484178026126e+00 1 1 1
1079 0 2 -7.7524358566076024e-01 2.2210519335855260e+01 1.3282467664749912e+01 3.8791686444065570e+00 1 1 0
4900 0 1 1.4212030505787867e+00 2.0467063570159027e+01 1.4984523661897022e+01 1.4008910471456795e+00 1 0 1
6475 0 1 1.6122804623638114e+00 2.4493585990696943e+01 1.6122359847703390e+01 5.1528469915544655e+00 1 0 0
6415 0 1 1.4595438423404774e+00 2.4546692502232215e+01 1.2702435940799143e+01 1.0658684404203571e+00 1 0 1
1981 0 1 1.6389559673467353e+00 1.9593860992742044e+01 1.8686811009824616e+01 4.7922631420617225e+00 1 1 0
4323 0 2 -7.2348905893216642e-01 2.3721243991414728e+01 1.3867130095999320e+01 1.6180562816397048e-01 0 0 1
1687 0 1 1.4465164054430499e+00 2.4789870646044655e+01 1.3229764982385229e+01 6.2043234143336292e+00 0 1 1
283 0 1 1.2930740604094715e+00 2.2303088388795992e+01 1.8217971954504321e+01 3.4302272462519401e+00 0 1 1
7970 0 2 -7.8507713613421171e-01 2.1100533420982273e+01 1.8621255170094290e+01 4.3820535236450162e+00 0 0 1
7407 0 2 -4.7628953268089186e-01 2.1881939588176074e+01 1.8229147574621539e+01 2.1205440158262645e+00 1 0 1
3087 0 2 -7.9658280133953219e-01 3.4919135696169845e+00 2.4453861241713906e+01 1.4329079638056750e+00 1 0 1
4847 0 2 -8.0334389669510509e-01 6.9273521570049190e-01 2.2654619130225328e+01 1.5559459944983662e+00 1 0 0
4561 0 1 1.4250686885031572e+00 1.1960224288898387e+00 1.9094565335921118e+01 2.3820545860036320e+00 0 1 1
1800 0 2 -7.8982032036733407e-01 1.3286962579106822e+00 1.9286643663371109e+01 8.2920130722417806e-01 1 1 1
4835 0 2 -7.4643338106981438e-01 9.1927018253387838e-01 2.2988113346356577e+01 4.2153543523080632e+00 2 0 1
4341 0 2 -7.2072826084418784e-01 1.1099400811505586e+00 2.0606020495494967e+01 3.1086010790978018e+00 1 1 1
649 0 1 1.5135161259850345e+00 1.3727825247519638e+00 2.2150630408377932e+01 2.9222568325330176e+00 1 1 1
220 0 1 1.5478107202673466e+00 1.3657314275161807e+00 2.3936753384203740e+01 5.4406977190884698e+00 1 1 1
3804 0 2 -7.6109798055037314e-01 2.8933455934872625e+00 2.2292410769844199e+01 2.5396586396328704e+00 1 1 2
2704 0 1 1.6261213758974147e+00 4.0915427199147771e+00 2.2993635515145151e+01 1.7501381435458936e+00 1 1 1
2336 0 2 -7.7071503040289413e-01 5.2151720485158526e+00 2.2892459554301329e+01 2.7455309339370584e+00 1 1 1
7545 0 2 -7.6956100322728249e-01 2.5788857413335506e+00 2.3098721972218556e+01 5.9304979959608080e+00 0 1 1
1307 0 2 -8.3142798672455043e-01 4.3885074925841767e+00 2.2271987632798808e+01 4.0505664972596922e-01 1 1 1
6205 0 1 1.5828740291725161e+00 6.1231482587776886e+00 2.1021886681002030e+01 6.0697201259911635e+00 1 1 0
2886 0 2 -7.9341194255558578e-01 1.6552897128328892e-01 1.9685750900396332e+01 6.1485273520400661e+00 1 1 0
1220 0 2 -7.4461397457974254e-01 6.4101260419507389e+00 1.9640025959771734e+01 5.3439228999150465e+00 1 1 1
8254 0 1 1.4044978203453971e+00 6.6164843939726810e+00 2.2685710207498147e+01 3.5981988675959649e+00 1 1 0
3224 0 2 -7.9182008139029691e-01 6.6914433315347734e+00 2.1926872469803779e+01 4.9563011382273263e+00 1 0 1
6762 0 2 -8.4700583975980248e-01 1.1172309255029827e+01 1.8981677762175831e+01 5.3787711754788852e+00 1 0 1
6562 0 1 1.4193934550175900e+00 1.0743226937052160e+01 1.9224352370591706e+01 1.3260059237314674e+00 1 1 1
4020 0 2 -8.2197717021446282e-01 1.1230985148099551e+01 1.9001211795884107e+01 2.7994902420551013e+00 1 2 1
2564 0 2 -7.2355700007760837e-01 9.3840816028353480e+00 2.0383425689008622e+01 1.4785189056618981e+00 1 1 1
7746 0 2 -7.2401511402900498e-01 1.0789078580713454e+01 2.3062290637496126e+01 1.0288535523148401e+00 1 0 1
3466 0 1 1.2664887779092115e+00 9.6436650771882952e+00 2.2669868325417877e+01 2.0205378599818062e+00 1 0 1
5465 0 2 -8.3483252950189979e-01 7.7919397813068860e+00 1.9499858686549480e+01 3.2449290467502148e+00 0 0 1
2863 0 1 1.4987804999681180e+00 7.8288101290154630e+00 2.0213490747128034e+01 1.8660273928918467e+00 1 1 1
6365 0 2 -6.9440949657408302e-01 7.5476904023396783e+00 2.1737496726339689e+01 2.2122200030686767e+00 0 1 1
6820 0 1 1.5223459849049297e+00 1.1404570744069169e+01 2.2655944109793850e+01 4.4673330569401113e+00 0 0 1
5766 0 2 -7.6334782188148298e-01 1.0169757009230134e+01 2.2678176079500641e+01 3.4768093309630435e+00 1 0 1
6886 0 1 1.6200949056185920e+00 1.1820677042839229e+01 1.9611579855326550e+01 4.0962190717069218e+00 1 1 1
2231 0 2 -6.7380731232200242e-01 8.7949904783346078e+00 2.4036804326135520e+01 1.8123480409173807e+00 1 1 2
3350 0 2 -8.1413917924882628e-01 1.1847126489933302e+01 2.1158832466356333e+01 4.2942550456393462e+00 0 1 0
6443 0 2 -7.7374557152386059e-01 7.0277168686127389e+00 1.9607196940167800e+01 6.8829454473541596e-01 1 1 1
5954 0 2 -7.8549841266782450e-01 1.1278392081282043e+01 2.2887510787647084e+01 6.1005770701811777e+00 0 0 1
6336 0 2 -7.6297003401543206e-01 7.1941962415066332e+00 2.4107871269959922e+01 3.5385043422811808e+00 0 0 0
2358 0 2 -7.8038090602226484e-01 1.1769928330117697e+01 1.9890982071406729e+01 3.6303772964427866e-01 1 1 1
3038 0 2 -7.7076309148177602e-01 1.2447949204119507e+01 2.3404434227701351e+01 3.5906064285980972e+00 1 1 0
6012 0 2 -8.0365323765479313e-01 1.3229184543270636e+01 1.8933754074940087e+01 4.1963067402634291e+00 0 0 1
631 0 1 1.5600413336674328e+00 1.3348647318831203e+01 2.4624114707737885e+01 3.2191486170985155e+00 1 1 1
2910 0 2 -7.5151946590261365e-01 1.6603914072078627e+01 1.9578446662985520e+01 2.4000001759157814e+00 1 1 1
6003 0 2 -8.5868694928111855e-01 1.8027678388150868e+01 2.4148435564057610e+01 2.7824815163127150e+00 0 0 1
7 0 1 1.6456913746120514e+00 1.7971144590125800e+01 2.0292291137811883e+01 2.7100263978340919e+00 0 0 1
3225 0 2 -8.3288802121573113e-01 1.7733578112677140e+01 2.1642729302438671e+01 3.5230924289473946e+00 0 1 1
4813 0 1 1.6677415353414522e+00 1.7762248834905819e+01 2.3129029483729820e+01 3.9821730878647323e+00 1 0 1
5685 0 2 -8.2806220179774814e-01 1.6527872206369178e+01 2.3470590128770560e+01 4.8548994854463627e+00 1 0 1
5812 0 1 1.5999878990363130e+00 1.5117831070587373e+01 2.3498250075398481e+01 5.5184874717575330e+00 1 1 1
7986 0 2 -8.1457266586372190e-01 1.4167786925055193e+01 2.4435375665256849e+01 1.8694244051772300e+00 1 1 0
6486 0 2 -7.6811588936638031e-01 1.4294614163653089e+01 2.4311664612883639e+01 4.4237469010812056e+00 1 0 1
6451 0 1 1.6197749104511749e+00 1.4356919694727106e+01 2.4053866736911662e+01 3.7824883029666517e-01 1 1 1
8115 0 2 -7.7290863075141925e-01 1.4948283633126453e+01 1.9235285152636493e+01 6.0245216765975300e+00 1 0 0
4832 0 2 -7.7682037087236455e-01 1.4902519453604034e+01 2.2086621386388540e+01 6.1112464511075677e+00 0 1 1
7185 0 2 -8.1058928939493546e-01 1.8741821744460772e+01 1.9291953750725131e+01 3.6036979245062084e+00 1 0 1
3450 0 2 -7.9996822471339324e-01 1.8683438002019741e+01 2.0420858321806787e+01 1.3495691098750562e+00 1 0 1
267 0 2 -7.4979630877568193e-01 1.5276810446076297e+01 2.2793761017765647e+01 9.9538785471459335e-02 0 1 1
2299 0 1 1.6076032764814474e+00 2.3779864559897149e+01 2.4869397828964530e+01 1.3802452090682027e+00 0 0 0
2785 0 1 1.6976283967197783e+00 2.4941091225889863e+01 2.2135181997824880e+01 1.8398977711368356e+00 0 1 1
1831 0 1 1.5050396317657613e+00 2.4932133082819544e+01 2.4896756755640723e+01 5.9010319339837558e+00 0 0 0
7203 0 2 -8.5180817482525517e-01 1.9169961818841482e+01 1.9341216944898726e+01 6.1342319051651693e+00 1 1 1
3584 0 2 -7.1156589371506807e-01 2.3657504347781842e+01 1.8900564591984331e+01 3.6837344179370155e+00 1 1 1
1296 0 2 -8.1205715560101832e-01 1.8985300226344197e+01 2.3203339176861455e+01 4.9362187998429894e+00 1 1 1
90 0 2 -7.8325019726004030e-01 2.3707164868393541e+01 2.4591337090995385e+01 4.9954648278113059e+00 0 0 1
7468 0 1 1.4988619054590933e+00 2.4461531150696214e+01 2.0228184999426389e+01 4.2264194332739651e+00 1 1 1
1011 0 2 -7.8344795659932576e-01 2.4362986471359804e+01 2.1201129496725670e+01 2.9818963620075998e+00 0 1 1
3935 0 2 -8.4064525823247438e-01 2.4070499505215825e+01 2.3312774201609322e+01 1.3984522802090957e+00 1 1 1
5917 0 1 1.5736429418329805e+00 2.0277179627250806e+01 2.3731958479378456e+01 5.6517649604727804e+00 1 1 1
7653 0 2 -7.6860793823425311e-01 2.3761648541290196e+01 2.0450714038027332e+01 5.6460462824548738e+00 0 0 2
7331 0 2 -8.1662466448853133e-01 2.1393806062716738e+01 2.4217292539162806e+01 4.6259282151845760e+00 0 1 1
7071 0 2 -7.8859719612142798e-01 1.9450167869817761e+01 2.4824801957300235e+01 8.9329877008590797e-01 1 0 1
1428 0 2 -6.6864505564472543e-01 4.5345298595084887e-01 3.1481863974274926e+00 6.2691959128309067e+00 1 1 1
3257 0 2 -7.6844648867559295e-01 3.1936121077626471e+00 2.2720044175208501e-03 7.9501533191010880e+00 1 2 1
3142 0 1 1.1757965531585335e+00 1.3863494712653768e+00 4.4326125485584509e+00 6.3756050571973617e+00 1 1 1
7013 0 2 -7.2397183630469641e-01 4.4607719196038564e+00 4.4629247982023195e+00 6.6553648402409413e+00 1 1 1
7755 0 2 -7.2262186732822598e-01 2.3394957958213585e+00 4.1415497214884658e+00 7.6207098139873057e+00 1 1 2
7096 0 1 1.5636991460455418e+00 3.4021529434345239e+00 1.0838907510786266e+00 6.7641073949797628e+00 1 1 0
4933 0 1 1.5036808256832408e+00 3.8398656399898208e+00 3.8591108775155334e+00 8.0031255939867680e+00 1 1 1
4779 0 2 -7.2794084586240482e-01 3.8726038598118362e+00 2.3208997117530541e+00 7.7114098824878905e+00 1 1 1
4396 0 1 1.6442916000387560e+00 4.1993282239363889e+00 5.0564529065120585e+00 1.0844586360794976e+01 0 1 1