Stoichiometric SiO2 box at 2.2g/mL

8268 atoms
2 atom types
0 50 xlo xhi
0 50 ylo yhi
0 50 zlo zhi

Masses

1	28.0855
2	15.9994

Atoms

1	0	1	0.86	25.005	35.6452	68.1078
2	0	2	-0.43	24.005	34.6452	67.1078
3	0	2	-0.43	26.005	36.6452	67.1078
4	0	1	0.86	25.005	41.3541	37.4958
5	0	2	-0.43	24.005	40.3541	36.4958
6	0	2	-0.43	26.005	42.3541	36.4958
7	0	1	0.86	25.005	42.0913	41.0796
8	0	2	-0.43	24.005	41.0913	40.0796
9	0	2	-0.43	26.005	43.0913	40.0796
10	0	1	0.86	25.005	50.3929	41.153
11	0	2	-0.43	24.005	49.3929	40.153
12	0	2	-0.43	26.005	51.3929	40.153
13	0	1	0.86	25.005	35.0654	36.8903
14	0	2	-0.43	24.005	34.0654	35.8903
15	0	2	-0.43	26.005	36.0654	35.8903
16	0	1	0.86	25.005	68.1802	55.0763
17	0	2	-0.43	24.005	67.1802	54.0763
18	0	2	-0.43	26.005	69.1802	54.0763
19	0	1	0.86	25.005	67.4154	34.1697
20	0	2	-0.43	24.005	66.4154	33.1697
21	0	2	-0.43	26.005	68.4154	33.1697
22	0	1	0.86	25.005	67.5184	41.4982
23	0	2	-0.43	24.005	66.5184	40.4982
24	0	2	-0.43	26.005	68.5184	40.4982
25	0	1	0.86	25.005	41.0772	58.2055
26	0	2	-0.43	24.005	40.0772	57.2055
27	0	2	-0.43	26.005	42.0772	57.2055
28	0	1	0.86	25.005	28.0033	33.8735
29	0	2	-0.43	24.005	27.0033	32.8735
30	0	2	-0.43	26.005	29.0033	32.8735
31	0	1	0.86	25.005	47.9104	60.5827
32	0	2	-0.43	24.005	46.9104	59.5827
33	0	2	-0.43	26.005	48.9104	59.5827
34	0	1	0.86	25.005	28.0064	37.2087
35	0	2	-0.43	24.005	27.0064	36.2087
36	0	2	-0.43	26.005	29.0064	36.2087
37	0	1	0.86	69.3964	48.859	73.9084
38	0	2	-0.43	68.3964	47.859	72.9084
39	0	2	-0.43	70.3964	49.859	72.9084
40	0	1	0.86	25.005	50.2561	72.9949
41	0	2	-0.43	24.005	49.2561	71.9949
42	0	2	-0.43	26.005	51.2561	71.9949
43	0	1	0.86	25.005	72.0339	39.9417
44	0	2	-0.43	24.005	71.0339	38.9417
45	0	2	-0.43	26.005	73.0339	38.9417
46	0	1	0.86	58.4719	55.9101	49.6563
47	0	2	-0.43	57.4719	54.9101	48.6563
48	0	2	-0.43	59.4719	56.9101	48.6563
49	0	1	0.86	25.005	32.1025	60.6816
50	0	2	-0.43	24.005	31.1025	59.6816
51	0	2	-0.43	26.005	33.1025	59.6816
52	0	1	0.86	50.8896	47.941	69.6327
53	0	2	-0.43	49.8896	46.941	68.6327
54	0	2	-0.43	51.8896	48.941	68.6327
55	0	1	0.86	25.005	63.8035	36.5579
56	0	2	-0.43	24.005	62.8035	35.5579
57	0	2	-0.43	26.005	64.8035	35.5579
58	0	1	0.86	25.005	26.6655	72.0009
59	0	2	-0.43	24.005	25.6655	71.0009
60	0	2	-0.43	26.005	27.6655	71.0009
61	0	1	0.86	25.005	54.7533	70.3876
62	0	2	-0.43	24.005	53.7533	69.3876
63	0	2	-0.43	26.005	55.7533	69.3876
64	0	1	0.86	25.005	66.7873	27.7919
65	0	2	-0.43	24.005	65.7873	26.7919
66	0	2	-0.43	26.005	67.7873	26.7919
67	0	1	0.86	25.005	73.9575	54.4957
68	0	2	-0.43	24.005	72.9575	53.4957
69	0	2	-0.43	26.005	74.9575	53.4957
70	0	1	0.86	25.005	34.4896	50.4323
71	0	2	-0.43	24.005	33.4896	49.4323
72	0	2	-0.43	26.005	35.4896	49.4323
73	0	1	0.86	25.005	38.6893	61.5931
74	0	2	-0.43	24.005	37.6893	60.5931
75	0	2	-0.43	26.005	39.6893	60.5931
76	0	1	0.86	25.005	73.6558	74.8094
77	0	2	-0.43	24.005	72.6558	73.8094
78	0	2	-0.43	26.005	74.6558	73.8094
79	0	1	0.86	25.005	61.5783	43.662
80	0	2	-0.43	24.005	60.5783	42.662
81	0	2	-0.43	26.005	62.5783	42.662
82	0	1	0.86	25.3837	60.3305	55.8623
83	0	2	-0.43	24.3837	59.3305	54.8623
84	0	2	-0.43	26.3837	61.3305	54.8623
85	0	1	0.86	25.005	56.0272	55.5688
86	0	2	-0.43	24.005	55.0272	54.5688
87	0	2	-0.43	26.005	57.0272	54.5688
88	0	1	0.86	25.005	34.4273	28.8579
89	0	2	-0.43	24.005	33.4273	27.8579
90	0	2	-0.43	26.005	35.4273	27.8579
91	0	1	0.86	56.6637	45.9888	68.2018
92	0	2	-0.43	55.6637	44.9888	67.2018
93	0	2	-0.43	57.6637	46.9888	67.2018
94	0	1	0.86	25.005	54.0631	57.934
95	0	2	-0.43	24.005	53.0631	56.934
96	0	2	-0.43	26.005	55.0631	56.934
97	0	1	0.86	25.005	26.0782	43.3897
98	0	2	-0.43	24.005	25.0782	42.3897
99	0	2	-0.43	26.005	27.0782	42.3897
100	0	1	0.86	25.005	35.2499	57.8769
101	0	2	-0.43	24.005	34.2499	56.8769
102	0	2	-0.43	26.005	36.2499	56.8769
103	0	1	0.86	25.005	36.9505	43.4888
104	0	2	-0.43	24.005	35.9505	42.4888
105	0	2	-0.43	26.005	37.9505	42.4888
106	0	1	0.86	25.005	44.6652	72.6055
107	0	2	-0.43	24.005	43.6652	71.6055
108	0	2	-0.43	26.005	45.6652	71.6055
109	0	1	0.86	25.005	32.1079	30.3387
110	0	2	-0.43	24.005	31.1079	29.3387
111	0	2	-0.43	26.005	33.1079	29.3387
112	0	1	0.86	27.1131	30.061	53.8222
113	0	2	-0.43	26.1131	29.061	52.8222
114	0	2	-0.43	28.1131	31.061	52.8222
115	0	1	0.86	25.005	42.3888	50.0506
116	0	2	-0.43	24.005	41.3888	49.0506
117	0	2	-0.43	26.005	43.3888	49.0506
118	0	1	0.86	25.005	47.1078	42.0854
119	0	2	-0.43	24.005	46.1078	41.0854
120	0	2	-0.43	26.005	48.1078	41.0854
121	0	1	0.86	45.5288	35.485	59.8584
122	0	2	-0.43	44.5288	34.485	58.8584
123	0	2	-0.43	46.5288	36.485	58.8584
124	0	1	0.86	25.005	61.2772	27.1535
125	0	2	-0.43	24.005	60.2772	26.1535
126	0	2	-0.43	26.005	62.2772	26.1535
127	0	1	0.86	25.005	50.7173	61.991
128	0	2	-0.43	24.005	49.7173	60.991
129	0	2	-0.43	26.005	51.7173	60.991
130	0	1	0.86	25.005	27.3237	26.7945
131	0	2	-0.43	24.005	26.3237	25.7945
132	0	2	-0.43	26.005	28.3237	25.7945
133	0	1	0.86	25.005	65.8965	44.511
134	0	2	-0.43	24.005	64.8965	43.511
135	0	2	-0.43	26.005	66.8965	43.511
136	0	1	0.86	25.005	42.3299	74.1521
137	0	2	-0.43	24.005	41.3299	73.1521
138	0	2	-0.43	26.005	43.3299	73.1521
139	0	1	0.86	25.005	61.3447	65.9615
140	0	2	-0.43	24.005	60.3447	64.9615
141	0	2	-0.43	26.005	62.3447	64.9615
142	0	1	0.86	53.6532	28.7158	61.1271
143	0	2	-0.43	52.6532	27.7158	60.1271
144	0	2	-0.43	54.6532	29.7158	60.1271
145	0	1	0.86	25.005	44.3574	31.1717
146	0	2	-0.43	24.005	43.3574	30.1717
147	0	2	-0.43	26.005	45.3574	30.1717
148	0	1	0.86	25.005	73.9831	34.3292
149	0	2	-0.43	24.005	72.9831	33.3292
150	0	2	-0.43	26.005	74.9831	33.3292
151	0	1	0.86	25.005	64.291	55.4836
152	0	2	-0.43	24.005	63.291	54.4836
153	0	2	-0.43	26.005	65.291	54.4836
154	0	1	0.86	25.005	38.778	36.8631
155	0	2	-0.43	24.005	37.778	35.8631
156	0	2	-0.43	26.005	39.778	35.8631
157	0	1	0.86	25.005	48.0752	53.5942
158	0	2	-0.43	24.005	47.0752	52.5942
159	0	2	-0.43	26.005	49.0752	52.5942
160	0	1	0.86	25.005	56.861	68.6635
161	0	2	-0.43	24.005	55.861	67.6635
162	0	2	-0.43	26.005	57.861	67.6635
163	0	1	0.86	25.005	36.9803	31.5506
164	0	2	-0.43	24.005	35.9803	30.5506
165	0	2	-0.43	26.005	37.9803	30.5506
166	0	1	0.86	64.821	42.8934	43.6246
167	0	2	-0.43	63.821	41.8934	42.6246
168	0	2	-0.43	65.821	43.8934	42.6246
169	0	1	0.86	25.005	74.7897	28.2914
170	0	2	-0.43	24.005	73.7897	27.2914
171	0	2	-0.43	26.005	75.7897	27.2914
172	0	1	0.86	25.005	68.4569	50.1146
173	0	2	-0.43	24.005	67.4569	49.1146
174	0	2	-0.43	26.005	69.4569	49.1146
175	0	1	0.86	63.2578	52.7731	52.2933
176	0	2	-0.43	62.2578	51.7731	51.2933
177	0	2	-0.43	64.2578	53.7731	51.2933
178	0	1	0.86	25.005	70.0377	42.5928
179	0	2	-0.43	24.005	69.0377	41.5928
180	0	2	-0.43	26.005	71.0377	41.5928
181	0	1	0.86	25.005	54.2591	29.7729
182	0	2	-0.43	24.005	53.2591	28.7729
183	0	2	-0.43	26.005	55.2591	28.7729
184	0	1	0.86	25.005	68.3324	67.0073
185	0	2	-0.43	24.005	67.3324	66.0073
186	0	2	-0.43	26.005	69.3324	66.0073
187	0	1	0.86	39.7369	49.5219	73.5503
188	0	2	-0.43	38.7369	48.5219	72.5503
189	0	2	-0.43	40.7369	50.5219	72.5503
190	0	1	0.86	45.0585	27.3035	63.7327
191	0	2	-0.43	44.0585	26.3035	62.7327
192	0	2	-0.43	46.0585	28.3035	62.7327
193	0	1	0.86	59.6634	41.8859	57.2619
194	0	2	-0.43	58.6634	40.8859	56.2619
195	0	2	-0.43	60.6634	42.8859	56.2619
196	0	1	0.86	25.005	70.0286	71.9783
197	0	2	-0.43	24.005	69.0286	70.9783
198	0	2	-0.43	26.005	71.0286	70.9783
199	0	1	0.86	25.005	36.9479	53.1101
200	0	2	-0.43	24.005	35.9479	52.1101
201	0	2	-0.43	26.005	37.9479	52.1101
202	0	1	0.86	25.005	57.6796	46.8398
203	0	2	-0.43	24.005	56.6796	45.8398
204	0	2	-0.43	26.005	58.6796	45.8398
205	0	1	0.86	25.005	57.7192	65.9601
206	0	2	-0.43	24.005	56.7192	64.9601
207	0	2	-0.43	26.005	58.7192	64.9601
208	0	1	0.86	25.005	41.5989	62.19
209	0	2	-0.43	24.005	40.5989	61.19
210	0	2	-0.43	26.005	42.5989	61.19
211	0	1	0.86	25.005	60.9496	61.1645
212	0	2	-0.43	24.005	59.9496	60.1645
213	0	2	-0.43	26.005	61.9496	60.1645
214	0	1	0.86	35.5461	69.9728	70.2221
215	0	2	-0.43	34.5461	68.9728	69.2221
216	0	2	-0.43	36.5461	70.9728	69.2221
217	0	1	0.86	25.005	47.5572	48.9568
218	0	2	-0.43	24.005	46.5572	47.9568
219	0	2	-0.43	26.005	48.5572	47.9568
220	0	1	0.86	55.8912	54.511	71.3475
221	0	2	-0.43	54.8912	53.511	70.3475
222	0	2	-0.43	56.8912	55.511	70.3475
223	0	1	0.86	63.76	37.2507	59.8593
224	0	2	-0.43	62.76	36.2507	58.8593
225	0	2	-0.43	64.76	38.2507	58.8593
226	0	1	0.86	25.005	42.5438	35.0248
227	0	2	-0.43	24.005	41.5438	34.0248
228	0	2	-0.43	26.005	43.5438	34.0248
229	0	1	0.86	25.005	29.0087	59.8613
230	0	2	-0.43	24.005	28.0087	58.8613
231	0	2	-0.43	26.005	30.0087	58.8613
232	0	1	0.86	28.4944	35.7687	66.2189
233	0	2	-0.43	27.4944	34.7687	65.2189
234	0	2	-0.43	29.4944	36.7687	65.2189
235	0	1	0.86	25.005	37.6336	49.7533
236	0	2	-0.43	24.005	36.6336	48.7533
237	0	2	-0.43	26.005	38.6336	48.7533
238	0	1	0.86	73.1668	61.8709	53.9923
239	0	2	-0.43	72.1668	60.8709	52.9923
240	0	2	-0.43	74.1668	62.8709	52.9923
241	0	1	0.86	25.005	31.9163	73.9192
242	0	2	-0.43	24.005	30.9163	72.9192
243	0	2	-0.43	26.005	32.9163	72.9192
244	0	1	0.86	25.005	53.3244	66.3124
245	0	2	-0.43	24.005	52.3244	65.3124
246	0	2	-0.43	26.005	54.3244	65.3124
247	0	1	0.86	25.005	63.6353	49.0998
248	0	2	-0.43	24.005	62.6353	48.0998
249	0	2	-0.43	26.005	64.6353	48.0998
250	0	1	0.86	61.542	40.8419	50.4383
251	0	2	-0.43	60.542	39.8419	49.4383
252	0	2	-0.43	62.542	41.8419	49.4383
253	0	1	0.86	25.005	60.1443	32.1219
254	0	2	-0.43	24.005	59.1443	31.1219
255	0	2	-0.43	26.005	61.1443	31.1219
256	0	1	0.86	25.005	68.0709	61.097
257	0	2	-0.43	24.005	67.0709	60.097
258	0	2	-0.43	26.005	69.0709	60.097
259	0	1	0.86	73.0546	73.8209	57.8705
260	0	2	-0.43	72.0546	72.8209	56.8705
261	0	2	-0.43	74.0546	74.8209	56.8705
262	0	1	0.86	25.005	33.3705	42.0611
263	0	2	-0.43	24.005	32.3705	41.0611
264	0	2	-0.43	26.005	34.3705	41.0611
265	0	1	0.86	25.005	58.4464	39.8321
266	0	2	-0.43	24.005	57.4464	38.8321
267	0	2	-0.43	26.005	59.4464	38.8321
268	0	1	0.86	25.005	52.1821	35.1035
269	0	2	-0.43	24.005	51.1821	34.1035
270	0	2	-0.43	26.005	53.1821	34.1035
271	0	1	0.86	25.005	42.025	27.907
272	0	2	-0.43	24.005	41.025	26.907
273	0	2	-0.43	26.005	43.025	26.907
274	0	1	0.86	25.005	37.6983	28.7534
275	0	2	-0.43	24.005	36.6983	27.7534
276	0	2	-0.43	26.005	38.6983	27.7534
277	0	1	0.86	59.9087	31.2604	72.7222
278	0	2	-0.43	58.9087	30.2604	71.7222
279	0	2	-0.43	60.9087	32.2604	71.7222
280	0	1	0.86	38.8937	59.8504	61.8164
281	0	2	-0.43	37.8937	58.8504	60.8164
282	0	2	-0.43	39.8937	60.8504	60.8164
283	0	1	0.86	25.005	71.2042	59.6656
284	0	2	-0.43	24.005	70.2042	58.6656
285	0	2	-0.43	26.005	72.2042	58.6656
286	0	1	0.86	62.0437	30.3117	54.8116
287	0	2	-0.43	61.0437	29.3117	53.8116
288	0	2	-0.43	63.0437	31.3117	53.8116
289	0	1	0.86	25.005	31.539	53.0195
290	0	2	-0.43	24.005	30.539	52.0195
291	0	2	-0.43	26.005	32.539	52.0195
292	0	1	0.86	25.005	47.4222	64.8892
293	0	2	-0.43	24.005	46.4222	63.8892
294	0	2	-0.43	26.005	48.4222	63.8892
295	0	1	0.86	25.005	41.8615	46.2874
296	0	2	-0.43	24.005	40.8615	45.2874
297	0	2	-0.43	26.005	42.8615	45.2874
298	0	1	0.86	25.005	48.6487	27.8742
299	0	2	-0.43	24.005	47.6487	26.8742
300	0	2	-0.43	26.005	49.6487	26.8742
301	0	1	0.86	53.0856	38.2621	26.9866
302	0	2	-0.43	52.0856	37.2621	25.9866
303	0	2	-0.43	54.0856	39.2621	25.9866
304	0	1	0.86	43.0976	54.633	33.157
305	0	2	-0.43	42.0976	53.633	32.157
306	0	2	-0.43	44.0976	55.633	32.157
307	0	1	0.86	25.005	70.6819	52.6003
308	0	2	-0.43	24.005	69.6819	51.6003
309	0	2	-0.43	26.005	71.6819	51.6003
310	0	1	0.86	31.272	68.3485	32.9616
311	0	2	-0.43	30.272	67.3485	31.9616
312	0	2	-0.43	32.272	69.3485	31.9616
313	0	1	0.86	62.5466	59.3549	32.0128
314	0	2	-0.43	61.5466	58.3549	31.0128
315	0	2	-0.43	63.5466	60.3549	31.0128
316	0	1	0.86	45.6255	47.8289	73.4932
317	0	2	-0.43	44.6255	46.8289	72.4932
318	0	2	-0.43	46.6255	48.8289	72.4932
319	0	1	0.86	25.005	71.414	48.2654
320	0	2	-0.43	24.005	70.414	47.2654
321	0	2	-0.43	26.005	72.414	47.2654
322	0	1	0.86	25.005	57.7028	31.3983
323	0	2	-0.43	24.005	56.7028	30.3983
324	0	2	-0.43	26.005	58.7028	30.3983
325	0	1	0.86	25.005	73.3212	25.2233
326	0	2	-0.43	24.005	72.3212	24.2233
327	0	2	-0.43	26.005	74.3212	24.2233
328	0	1	0.86	25.005	37.097	71.4531
329	0	2	-0.43	24.005	36.097	70.4531
330	0	2	-0.43	26.005	38.097	70.4531
331	0	1	0.86	37.6982	34.8089	62.9956
332	0	2	-0.43	36.6982	33.8089	61.9956
333	0	2	-0.43	38.6982	35.8089	61.9956
334	0	1	0.86	25.005	30.9126	56.0345
335	0	2	-0.43	24.005	29.9126	55.0345
336	0	2	-0.43	26.005	31.9126	55.0345
337	0	1	0.86	29.0038	29.2454	33.8458
338	0	2	-0.43	28.0038	28.2454	32.8458
339	0	2	-0.43	30.0038	30.2454	32.8458
340	0	1	0.86	42.6822	52.5634	70.835
341	0	2	-0.43	41.6822	51.5634	69.835
342	0	2	-0.43	43.6822	53.5634	69.835
343	0	1	0.86	25.005	60.4062	72.3438
344	0	2	-0.43	24.005	59.4062	71.3438
345	0	2	-0.43	26.005	61.4062	71.3438
346	0	1	0.86	67.9051	35.2003	29.9769
347	0	2	-0.43	66.9051	34.2003	28.9769
348	0	2	-0.43	68.9051	36.2003	28.9769
349	0	1	0.86	25.005	68.1987	57.5795
350	0	2	-0.43	24.005	67.1987	56.5795
351	0	2	-0.43	26.005	69.1987	56.5795
352	0	1	0.86	56.9243	28.7722	66.2212
353	0	2	-0.43	55.9243	27.7722	65.2212
354	0	2	-0.43	57.9243	29.7722	65.2212
355	0	1	0.86	25.005	73.4235	65.0732
356	0	2	-0.43	24.005	72.4235	64.0732
357	0	2	-0.43	26.005	74.4235	64.0732
358	0	1	0.86	39.1193	47.7914	67.8487
359	0	2	-0.43	38.1193	46.7914	66.8487
360	0	2	-0.43	40.1193	48.7914	66.8487
361	0	1	0.86	39.9577	66.1712	30.4783
362	0	2	-0.43	38.9577	65.1712	29.4783
363	0	2	-0.43	40.9577	67.1712	29.4783
364	0	1	0.86	63.6582	28.6589	70.9078
365	0	2	-0.43	62.6582	27.6589	69.9078
366	0	2	-0.43	64.6582	29.6589	69.9078
367	0	1	0.86	50.35	46.2028	37.5515
368	0	2	-0.43	49.35	45.2028	36.5515
369	0	2	-0.43	51.35	47.2028	36.5515
370	0	1	0.86	25.005	36.158	26.07
371	0	2	-0.43	24.005	35.158	25.07
372	0	2	-0.43	26.005	37.158	25.07
373	0	1	0.86	47.141	69.462	45.7095
374	0	2	-0.43	46.141	68.462	44.7095
375	0	2	-0.43	48.141	70.462	44.7095
376	0	1	0.86	54.3818	28.3275	71.9678
377	0	2	-0.43	53.3818	27.3275	70.9678
378	0	2	-0.43	55.3818	29.3275	70.9678
379	0	1	0.86	54.5071	74.8554	47.0208
380	0	2	-0.43	53.5071	73.8554	46.0208
381	0	2	-0.43	55.5071	75.8554	46.0208
382	0	1	0.86	49.8298	65.9205	49.4508
383	0	2	-0.43	48.8298	64.9205	48.4508
384	0	2	-0.43	50.8298	66.9205	48.4508
385	0	1	0.86	25.005	39.9892	48.9154
386	0	2	-0.43	24.005	38.9892	47.9154
387	0	2	-0.43	26.005	40.9892	47.9154
388	0	1	0.86	32.1484	32.8984	27.6142
389	0	2	-0.43	31.1484	31.8984	26.6142
390	0	2	-0.43	33.1484	33.8984	26.6142
391	0	1	0.86	58.1848	37.3375	29.2411
392	0	2	-0.43	57.1848	36.3375	28.2411
393	0	2	-0.43	59.1848	38.3375	28.2411
394	0	1	0.86	25.005	70.9299	65.4151
395	0	2	-0.43	24.005	69.9299	64.4151
396	0	2	-0.43	26.005	71.9299	64.4151
397	0	1	0.86	34.42	41.3867	52.2223
398	0	2	-0.43	33.42	40.3867	51.2223
399	0	2	-0.43	35.42	42.3867	51.2223
400	0	1	0.86	43.6808	36.8029	67.0777
401	0	2	-0.43	42.6808	35.8029	66.0777
402	0	2	-0.43	44.6808	37.8029	66.0777
403	0	1	0.86	39.3911	55.2374	65.9705
404	0	2	-0.43	38.3911	54.2374	64.9705
405	0	2	-0.43	40.3911	56.2374	64.9705
406	0	1	0.86	27.7282	71.9023	40.5713
407	0	2	-0.43	26.7282	70.9023	39.5713
408	0	2	-0.43	28.7282	72.9023	39.5713
409	0	1	0.86	49.3932	67.982	71.8117
410	0	2	-0.43	48.3932	66.982	70.8117
411	0	2	-0.43	50.3932	68.982	70.8117
412	0	1	0.86	25.005	29.2263	68.9673
413	0	2	-0.43	24.005	28.2263	67.9673
414	0	2	-0.43	26.005	30.2263	67.9673
415	0	1	0.86	73.1312	70.721	45.6775
416	0	2	-0.43	72.1312	69.721	44.6775
417	0	2	-0.43	74.1312	71.721	44.6775
418	0	1	0.86	73.7267	59.3411	29.0078
419	0	2	-0.43	72.7267	58.3411	28.0078
420	0	2	-0.43	74.7267	60.3411	28.0078
421	0	1	0.86	53.2762	61.5612	46.8596
422	0	2	-0.43	52.2762	60.5612	45.8596
423	0	2	-0.43	54.2762	62.5612	45.8596
424	0	1	0.86	68.1459	26.4675	29.5992
425	0	2	-0.43	67.1459	25.4675	28.5992
426	0	2	-0.43	69.1459	27.4675	28.5992
427	0	1	0.86	25.005	31.941	68.3824
428	0	2	-0.43	24.005	30.941	67.3824
429	0	2	-0.43	26.005	32.941	67.3824
430	0	1	0.86	54.7116	31.0775	39.1953
431	0	2	-0.43	53.7116	30.0775	38.1953
432	0	2	-0.43	55.7116	32.0775	38.1953
433	0	1	0.86	54.0424	33.0014	54.8296
434	0	2	-0.43	53.0424	32.0014	53.8296
435	0	2	-0.43	55.0424	34.0014	53.8296
436	0	1	0.86	62.9103	36.0811	71.0185
437	0	2	-0.43	61.9103	35.0811	70.0185
438	0	2	-0.43	63.9103	37.0811	70.0185
439	0	1	0.86	25.005	25.1845	29.2714
440	0	2	-0.43	24.005	24.1845	28.2714
441	0	2	-0.43	26.005	26.1845	28.2714
442	0	1	0.86	25.005	25.3155	40.4203
443	0	2	-0.43	24.005	24.3155	39.4203
444	0	2	-0.43	26.005	26.3155	39.4203
445	0	1	0.86	45.3479	29.669	47.289
446	0	2	-0.43	44.3479	28.669	46.289
447	0	2	-0.43	46.3479	30.669	46.289
448	0	1	0.86	25.005	52.2159	53.6943
449	0	2	-0.43	24.005	51.2159	52.6943
450	0	2	-0.43	26.005	53.2159	52.6943
451	0	1	0.86	67.4366	70.9742	48.3869
452	0	2	-0.43	66.4366	69.9742	47.3869
453	0	2	-0.43	68.4366	71.9742	47.3869
454	0	1	0.86	54.4743	45.462	66.3082
455	0	2	-0.43	53.4743	44.462	65.3082
456	0	2	-0.43	55.4743	46.462	65.3082
457	0	1	0.86	25.005	48.0217	58.0567
458	0	2	-0.43	24.005	47.0217	57.0567
459	0	2	-0.43	26.005	49.0217	57.0567
460	0	1	0.86	41.045	68.2536	61.1744
461	0	2	-0.43	40.045	67.2536	60.1744
462	0	2	-0.43	42.045	69.2536	60.1744
463	0	1	0.86	34.9433	48.8144	35.171
464	0	2	-0.43	33.9433	47.8144	34.171
465	0	2	-0.43	35.9433	49.8144	34.171
466	0	1	0.86	25.005	62.2417	70.3234
467	0	2	-0.43	24.005	61.2417	69.3234
468	0	2	-0.43	26.005	63.2417	69.3234
469	0	1	0.86	25.005	51.508	30.8421
470	0	2	-0.43	24.005	50.508	29.8421
471	0	2	-0.43	26.005	52.508	29.8421
472	0	1	0.86	59.1927	38.892	56.8926
473	0	2	-0.43	58.1927	37.892	55.8926
474	0	2	-0.43	60.1927	39.892	55.8926
475	0	1	0.86	25.005	52.8978	46.9219
476	0	2	-0.43	24.005	51.8978	45.9219
477	0	2	-0.43	26.005	53.8978	45.9219
478	0	1	0.86	25.005	40.4806	68.3917
479	0	2	-0.43	24.005	39.4806	67.3917
480	0	2	-0.43	26.005	41.4806	67.3917
481	0	1	0.86	30.8528	71.1064	47.1606
482	0	2	-0.43	29.8528	70.1064	46.1606
483	0	2	-0.43	31.8528	72.1064	46.1606
484	0	1	0.86	25.005	34.5207	32.2933
485	0	2	-0.43	24.005	33.5207	31.2933
486	0	2	-0.43	26.005	35.5207	31.2933
487	0	1	0.86	30.3316	55.0139	27.764
488	0	2	-0.43	29.3316	54.0139	26.764
489	0	2	-0.43	31.3316	56.0139	26.764
490	0	1	0.86	66.7161	61.9117	63.9726
491	0	2	-0.43	65.7161	60.9117	62.9726
492	0	2	-0.43	67.7161	62.9117	62.9726
493	0	1	0.86	36.0574	37.4415	44.4454
494	0	2	-0.43	35.0574	36.4415	43.4454
495	0	2	-0.43	37.0574	38.4415	43.4454
496	0	1	0.86	31.071	72.8767	38.2004
497	0	2	-0.43	30.071	71.8767	37.2004
498	0	2	-0.43	32.071	73.8767	37.2004
499	0	1	0.86	32.4796	57.8281	29.7301
500	0	2	-0.43	31.4796	56.8281	28.7301
501	0	2	-0.43	33.4796	58.8281	28.7301
502	0	1	0.86	25.005	63.1559	46.6425
503	0	2	-0.43	24.005	62.1559	45.6425
504	0	2	-0.43	26.005	64.1559	45.6425
505	0	1	0.86	49.1586	73.8378	40.9824
506	0	2	-0.43	48.1586	72.8378	39.9824
507	0	2	-0.43	50.1586	74.8378	39.9824
508	0	1	0.86	59.4744	51.9672	43.5794
509	0	2	-0.43	58.4744	50.9672	42.5794
510	0	2	-0.43	60.4744	52.9672	42.5794
511	0	1	0.86	25.005	25.238	51.26
512	0	2	-0.43	24.005	24.238	50.26
513	0	2	-0.43	26.005	26.238	50.26
514	0	1	0.86	49.2443	32.2203	34.9991
515	0	2	-0.43	48.2443	31.2203	33.9991
516	0	2	-0.43	50.2443	33.2203	33.9991
517	0	1	0.86	65.0324	71.7717	68.0372
518	0	2	-0.43	64.0324	70.7717	67.0372
519	0	2	-0.43	66.0324	72.7717	67.0372
520	0	1	0.86	59.431	53.84	39.9657
521	0	2	-0.43	58.431	52.84	38.9657
522	0	2	-0.43	60.431	54.84	38.9657
523	0	1	0.86	25.005	62.6286	52.8701
524	0	2	-0.43	24.005	61.6286	51.8701
525	0	2	-0.43	26.005	63.6286	51.8701
526	0	1	0.86	32.5283	63.409	52.4355
527	0	2	-0.43	31.5283	62.409	51.4355
528	0	2	-0.43	33.5283	64.409	51.4355
529	0	1	0.86	43.1366	48.9202	69.6284
530	0	2	-0.43	42.1366	47.9202	68.6284
531	0	2	-0.43	44.1366	49.9202	68.6284
532	0	1	0.86	61.3243	26.5306	62.2042
533	0	2	-0.43	60.3243	25.5306	61.2042
534	0	2	-0.43	62.3243	27.5306	61.2042
535	0	1	0.86	25.005	33.9124	46.9222
536	0	2	-0.43	24.005	32.9124	45.9222
537	0	2	-0.43	26.005	34.9124	45.9222
538	0	1	0.86	25.005	52.2718	49.4377
539	0	2	-0.43	24.005	51.2718	48.4377
540	0	2	-0.43	26.005	53.2718	48.4377
541	0	1	0.86	25.005	70.8514	37.4904
542	0	2	-0.43	24.005	69.8514	36.4904
543	0	2	-0.43	26.005	71.8514	36.4904
544	0	1	0.86	25.005	55.5169	60.0097
545	0	2	-0.43	24.005	54.5169	59.0097
546	0	2	-0.43	26.005	56.5169	59.0097
547	0	1	0.86	25.005	60.2464	37.1359
548	0	2	-0.43	24.005	59.2464	36.1359
549	0	2	-0.43	26.005	61.2464	36.1359
550	0	1	0.86	25.005	53.0781	44.4191
551	0	2	-0.43	24.005	52.0781	43.4191
552	0	2	-0.43	26.005	54.0781	43.4191
553	0	1	0.86	69.5693	71.847	68.1996
554	0	2	-0.43	68.5693	70.847	67.1996
555	0	2	-0.43	70.5693	72.847	67.1996
556	0	1	0.86	25.005	48.4111	70.1454
557	0	2	-0.43	24.005	47.4111	69.1454
558	0	2	-0.43	26.005	49.4111	69.1454
559	0	1	0.86	42.6764	71.5878	51.2525
560	0	2	-0.43	41.6764	70.5878	50.2525
561	0	2	-0.43	43.6764	72.5878	50.2525
562	0	1	0.86	56.6616	27.6998	58.2748
563	0	2	-0.43	55.6616	26.6998	57.2748
564	0	2	-0.43	57.6616	28.6998	57.2748
565	0	1	0.86	43.388	58.0895	35.1162
566	0	2	-0.43	42.388	57.0895	34.1162
567	0	2	-0.43	44.388	59.0895	34.1162
568	0	1	0.86	33.4043	56.8483	27.122
569	0	2	-0.43	32.4043	55.8483	26.122
570	0	2	-0.43	34.4043	57.8483	26.122
571	0	1	0.86	58.6659	29.487	38.1194
572	0	2	-0.43	57.6659	28.487	37.1194
573	0	2	-0.43	59.6659	30.487	37.1194
574	0	1	0.86	25.005	34.6048	39.4894
575	0	2	-0.43	24.005	33.6048	38.4894
576	0	2	-0.43	26.005	35.6048	38.4894
577	0	1	0.86	54.9753	47.4351	72.1032
578	0	2	-0.43	53.9753	46.4351	71.1032
579	0	2	-0.43	55.9753	48.4351	71.1032
580	0	1	0.86	42.2959	42.0602	48.6906
581	0	2	-0.43	41.2959	41.0602	47.6906
582	0	2	-0.43	43.2959	43.0602	47.6906
583	0	1	0.86	25.005	55.0396	33.2008
584	0	2	-0.43	24.005	54.0396	32.2008
585	0	2	-0.43	26.005	56.0396	32.2008
586	0	1	0.86	63.4086	52.9732	30.7017
587	0	2	-0.43	62.4086	51.9732	29.7017
588	0	2	-0.43	64.4086	53.9732	29.7017
589	0	1	0.86	25.005	38.4005	56.3179
590	0	2	-0.43	24.005	37.4005	55.3179
591	0	2	-0.43	26.005	39.4005	55.3179
592	0	1	0.86	37.332	71.6415	51.8741
593	0	2	-0.43	36.332	70.6415	50.8741
594	0	2	-0.43	38.332	72.6415	50.8741
595	0	1	0.86	25.005	66.2046	63.1222
596	0	2	-0.43	24.005	65.2046	62.1222
597	0	2	-0.43	26.005	67.2046	62.1222
598	0	1	0.86	31.7023	35.1021	37.4416
599	0	2	-0.43	30.7023	34.1021	36.4416
600	0	2	-0.43	32.7023	36.1021	36.4416
601	0	1	0.86	43.2422	54.4114	27.0659
602	0	2	-0.43	42.2422	53.4114	26.0659
603	0	2	-0.43	44.2422	55.4114	26.0659
604	0	1	0.86	25.005	59.6284	25.1538
605	0	2	-0.43	24.005	58.6284	24.1538
606	0	2	-0.43	26.005	60.6284	24.1538
607	0	1	0.86	34.9274	25.6123	26.909
608	0	2	-0.43	33.9274	24.6123	25.909
609	0	2	-0.43	35.9274	26.6123	25.909
610	0	1	0.86	29.444	29.3283	47.5202
611	0	2	-0.43	28.444	28.3283	46.5202
612	0	2	-0.43	30.444	30.3283	46.5202
613	0	1	0.86	31.9422	72.6027	34.9967
614	0	2	-0.43	30.9422	71.6027	33.9967
615	0	2	-0.43	32.9422	73.6027	33.9967
616	0	1	0.86	25.005	64.5203	30.9363
617	0	2	-0.43	24.005	63.5203	29.9363
618	0	2	-0.43	26.005	65.5203	29.9363
619	0	1	0.86	66.5944	33.5367	51.6844
620	0	2	-0.43	65.5944	32.5367	50.6844
621	0	2	-0.43	67.5944	34.5367	50.6844
622	0	1	0.86	67.8631	54.1626	31.895
623	0	2	-0.43	66.8631	53.1626	30.895
624	0	2	-0.43	68.8631	55.1626	30.895
625	0	1	0.86	35.5777	58.4969	32.9958
626	0	2	-0.43	34.5777	57.4969	31.9958
627	0	2	-0.43	36.5777	59.4969	31.9958
628	0	1	0.86	25.005	74.6959	72.2032
629	0	2	-0.43	24.005	73.6959	71.2032
630	0	2	-0.43	26.005	75.6959	71.2032
631	0	1	0.86	55.85	69.9747	52.2866
632	0	2	-0.43	54.85	68.9747	51.2866
633	0	2	-0.43	56.85	70.9747	51.2866
634	0	1	0.86	25.005	37.3572	40.3594
635	0	2	-0.43	24.005	36.3572	39.3594
636	0	2	-0.43	26.005	38.3572	39.3594
637	0	1	0.86	25.005	56.8091	26.1123
638	0	2	-0.43	24.005	55.8091	25.1123
639	0	2	-0.43	26.005	57.8091	25.1123
640	0	1	0.86	37.3715	52.8932	61.9547
641	0	2	-0.43	36.3715	51.8932	60.9547
642	0	2	-0.43	38.3715	53.8932	60.9547
643	0	1	0.86	61.3794	65.5975	58.9544
644	0	2	-0.43	60.3794	64.5975	57.9544
645	0	2	-0.43	62.3794	66.5975	57.9544
646	0	1	0.86	25.005	28.3273	66.2841
647	0	2	-0.43	24.005	27.3273	65.2841
648	0	2	-0.43	26.005	29.3273	65.2841
649	0	1	0.86	25.005	55.1773	50.5621
650	0	2	-0.43	24.005	54.1773	49.5621
651	0	2	-0.43	26.005	56.1773	49.5621
652	0	1	0.86	25.005	54.4908	37.0549
653	0	2	-0.43	24.005	53.4908	36.0549
654	0	2	-0.43	26.005	55.4908	36.0549
655	0	1	0.86	25.005	33.6844	71.9046
656	0	2	-0.43	24.005	32.6844	70.9046
657	0	2	-0.43	26.005	34.6844	70.9046
658	0	1	0.86	25.005	30.6211	27.9394
659	0	2	-0.43	24.005	29.6211	26.9394
660	0	2	-0.43	26.005	31.6211	26.9394
661	0	1	0.86	50.9	46.6325	56.2342
662	0	2	-0.43	49.9	45.6325	55.2342
663	0	2	-0.43	51.9	47.6325	55.2342
664	0	1	0.86	66.4776	62.4816	60.1151
665	0	2	-0.43	65.4776	61.4816	59.1151
666	0	2	-0.43	67.4776	63.4816	59.1151
667	0	1	0.86	69.9122	72.1108	71.3224
668	0	2	-0.43	68.9122	71.1108	70.3224
669	0	2	-0.43	70.9122	73.1108	70.3224
670	0	1	0.86	25.005	60.7959	49.1167
671	0	2	-0.43	24.005	59.7959	48.1167
672	0	2	-0.43	26.005	61.7959	48.1167
673	0	1	0.86	42.3864	71.8937	39.2328
674	0	2	-0.43	41.3864	70.8937	38.2328
675	0	2	-0.43	43.3864	72.8937	38.2328
676	0	1	0.86	59.4915	29.146	55.8071
677	0	2	-0.43	58.4915	28.146	54.8071
678	0	2	-0.43	60.4915	30.146	54.8071
679	0	1	0.86	43.6385	45.2645	73.4288
680	0	2	-0.43	42.6385	44.2645	72.4288
681	0	2	-0.43	44.6385	46.2645	72.4288
682	0	1	0.86	71.2667	70.7612	73.2582
683	0	2	-0.43	70.2667	69.7612	72.2582
684	0	2	-0.43	72.2667	71.7612	72.2582
685	0	1	0.86	40.9675	53.4677	67.089
686	0	2	-0.43	39.9675	52.4677	66.089
687	0	2	-0.43	41.9675	54.4677	66.089
688	0	1	0.86	25.005	37.9317	46.8761
689	0	2	-0.43	24.005	36.9317	45.8761
690	0	2	-0.43	26.005	38.9317	45.8761
691	0	1	0.86	31.4356	57.0377	56.3228
692	0	2	-0.43	30.4356	56.0377	55.3228
693	0	2	-0.43	32.4356	58.0377	55.3228
694	0	1	0.86	58.1709	47.7921	43.5912
695	0	2	-0.43	57.1709	46.7921	42.5912
696	0	2	-0.43	59.1709	48.7921	42.5912
697	0	1	0.86	47.2618	67.4434	52.0551
698	0	2	-0.43	46.2618	66.4434	51.0551
699	0	2	-0.43	48.2618	68.4434	51.0551
700	0	1	0.86	43.3469	68.2732	31.4148
701	0	2	-0.43	42.3469	67.2732	30.4148
702	0	2	-0.43	44.3469	69.2732	30.4148
703	0	1	0.86	66.2772	40.803	70.1814
704	0	2	-0.43	65.2772	39.803	69.1814
705	0	2	-0.43	67.2772	41.803	69.1814
706	0	1	0.86	25.005	74.058	37.897
707	0	2	-0.43	24.005	73.058	36.897
708	0	2	-0.43	26.005	75.058	36.897
709	0	1	0.86	55.524	38.9784	63.4799
710	0	2	-0.43	54.524	37.9784	62.4799
711	0	2	-0.43	56.524	39.9784	62.4799
712	0	1	0.86	25.005	41.4504	55.4957
713	0	2	-0.43	24.005	40.4504	54.4957
714	0	2	-0.43	26.005	42.4504	54.4957
715	0	1	0.86	50.7747	69.6647	56.3825
716	0	2	-0.43	49.7747	68.6647	55.3825
717	0	2	-0.43	51.7747	70.6647	55.3825
718	0	1	0.86	25.005	68.5347	31.1784
719	0	2	-0.43	24.005	67.5347	30.1784
720	0	2	-0.43	26.005	69.5347	30.1784
721	0	1	0.86	69.2345	37.0845	58.2605
722	0	2	-0.43	68.2345	36.0845	57.2605
723	0	2	-0.43	70.2345	38.0845	57.2605
724	0	1	0.86	44.9023	45.816	62.3065
725	0	2	-0.43	43.9023	44.816	61.3065
726	0	2	-0.43	45.9023	46.816	61.3065
727	0	1	0.86	35.6759	27.8236	37.6667
728	0	2	-0.43	34.6759	26.8236	36.6667
729	0	2	-0.43	36.6759	28.8236	36.6667
730	0	1	0.86	45.0969	59.1842	50.2576
731	0	2	-0.43	44.0969	58.1842	49.2576
732	0	2	-0.43	46.0969	60.1842	49.2576
733	0	1	0.86	39.6793	34.2617	32.7799
734	0	2	-0.43	38.6793	33.2617	31.7799
735	0	2	-0.43	40.6793	35.2617	31.7799
736	0	1	0.86	33.6492	28.0571	68.2344
737	0	2	-0.43	32.6492	27.0571	67.2344
738	0	2	-0.43	34.6492	29.0571	67.2344
739	0	1	0.86	62.903	59.8727	64.398
740	0	2	-0.43	61.903	58.8727	63.398
741	0	2	-0.43	63.903	60.8727	63.398
742	0	1	0.86	44.2254	58.7786	52.6664
743	0	2	-0.43	43.2254	57.7786	51.6664
744	0	2	-0.43	45.2254	59.7786	51.6664
745	0	1	0.86	46.8939	25.1961	36.7488
746	0	2	-0.43	45.8939	24.1961	35.7488
747	0	2	-0.43	47.8939	26.1961	35.7488
748	0	1	0.86	25.005	63.8776	41.3635
749	0	2	-0.43	24.005	62.8776	40.3635
750	0	2	-0.43	26.005	64.8776	40.3635
751	0	1	0.86	54.7489	52.139	60.3658
752	0	2	-0.43	53.7489	51.139	59.3658
753	0	2	-0.43	55.7489	53.139	59.3658
754	0	1	0.86	25.005	40.29	51.4329
755	0	2	-0.43	24.005	39.29	50.4329
756	0	2	-0.43	26.005	41.29	50.4329
757	0	1	0.86	42.9462	32.0803	37.2706
758	0	2	-0.43	41.9462	31.0803	36.2706
759	0	2	-0.43	43.9462	33.0803	36.2706
760	0	1	0.86	54.6637	55.3348	39.5339
761	0	2	-0.43	53.6637	54.3348	38.5339
762	0	2	-0.43	55.6637	56.3348	38.5339
763	0	1	0.86	74.3145	31.1155	33.8071
764	0	2	-0.43	73.3145	30.1155	32.8071
765	0	2	-0.43	75.3145	32.1155	32.8071
766	0	1	0.86	72.2491	65.3583	45.6422
767	0	2	-0.43	71.2491	64.3583	44.6422
768	0	2	-0.43	73.2491	66.3583	44.6422
769	0	1	0.86	28.3061	26.5889	34.5732
770	0	2	-0.43	27.3061	25.5889	33.5732
771	0	2	-0.43	29.3061	27.5889	33.5732
772	0	1	0.86	67.9444	63.8796	36.4704
773	0	2	-0.43	66.9444	62.8796	35.4704
774	0	2	-0.43	68.9444	64.8796	35.4704
775	0	1	0.86	25.005	45.3864	46.3621
776	0	2	-0.43	24.005	44.3864	45.3621
777	0	2	-0.43	26.005	46.3864	45.3621
778	0	1	0.86	34.3661	53.1987	70.243
779	0	2	-0.43	33.3661	52.1987	69.243
780	0	2	-0.43	35.3661	54.1987	69.243
781	0	1	0.86	25.005	25.0439	65.8554
782	0	2	-0.43	24.005	24.0439	64.8554
783	0	2	-0.43	26.005	26.0439	64.8554
784	0	1	0.86	64.784	34.2927	73.0437
785	0	2	-0.43	63.784	33.2927	72.0437
786	0	2	-0.43	65.784	35.2927	72.0437
787	0	1	0.86	25.005	64.9798	74.028
788	0	2	-0.43	24.005	63.9798	73.028
789	0	2	-0.43	26.005	65.9798	73.028
790	0	1	0.86	37.8299	31.6484	43.9464
791	0	2	-0.43	36.8299	30.6484	42.9464
792	0	2	-0.43	38.8299	32.6484	42.9464
793	0	1	0.86	67.4762	32.5176	59.1185
794	0	2	-0.43	66.4762	31.5176	58.1185
795	0	2	-0.43	68.4762	33.5176	58.1185
796	0	1	0.86	72.1402	30.9206	49.2301
797	0	2	-0.43	71.1402	29.9206	48.2301
798	0	2	-0.43	73.1402	31.9206	48.2301
799	0	1	0.86	68.0522	35.8659	45.9829
800	0	2	-0.43	67.0522	34.8659	44.9829
801	0	2	-0.43	69.0522	36.8659	44.9829
802	0	1	0.86	35.4687	34.8467	53.6506
803	0	2	-0.43	34.4687	33.8467	52.6506
804	0	2	-0.43	36.4687	35.8467	52.6506
805	0	1	0.86	25.005	66.0689	53.3995
806	0	2	-0.43	24.005	65.0689	52.3995
807	0	2	-0.43	26.005	67.0689	52.3995
808	0	1	0.86	38.3481	58.3798	40.1657
809	0	2	-0.43	37.3481	57.3798	39.1657
810	0	2	-0.43	39.3481	59.3798	39.1657
811	0	1	0.86	51.9055	43.3542	72.8948
812	0	2	-0.43	50.9055	42.3542	71.8948
813	0	2	-0.43	52.9055	44.3542	71.8948